<?xml version="1.0" encoding="UTF-8"?>

<!-- generated on 11/02/20 18:29:15 by Eclipse SUMO GUI Version 1.5.0
<configuration xmlns:xsi="http://www.w3.org/2001/XMLSchema-instance" xsi:noNamespaceSchemaLocation="http://sumo.dlr.de/xsd/sumoConfiguration.xsd">

    <input>
        <net-file value="simulation/osm.net.xml"/>
        <route-files value="simulation/osm.rou.xml"/>
        <additional-files value="simulation/osm.det.xml"/>
    </input>

    <output>
        <queue-output value="output/queue.xml"/>
        <summary-output value="output/summary.xml"/>
        <tripinfo-output value="output/tripinfo.xml"/>
    </output>

    <time>
        <begin value="0"/>
    </time>

    <processing>
        <no-internal-links value="true"/>
    </processing>

    <report>
        <verbose value="true"/>
        <no-step-log value="true"/>
    </report>

    <traci_server>
        <remote-port value="60087"/>
    </traci_server>

</configuration>
-->

<queue-export xmlns:xsi="http://www.w3.org/2001/XMLSchema-instance" xsi:noNamespaceSchemaLocation="http://sumo.dlr.de/xsd/queue_file.xsd">
    <data timestep="0.00">
        <lanes/>
    </data>
    <data timestep="1.00">
        <lanes/>
    </data>
    <data timestep="2.00">
        <lanes/>
    </data>
    <data timestep="3.00">
        <lanes/>
    </data>
    <data timestep="4.00">
        <lanes/>
    </data>
    <data timestep="5.00">
        <lanes/>
    </data>
    <data timestep="6.00">
        <lanes>
            <lane id="gneE10.441_0" queueing_time="0.00" queueing_length="0.00" queueing_length_experimental="16.64"/>
        </lanes>
    </data>
    <data timestep="7.00">
        <lanes/>
    </data>
    <data timestep="8.00">
        <lanes/>
    </data>
    <data timestep="9.00">
        <lanes/>
    </data>
    <data timestep="10.00">
        <lanes/>
    </data>
    <data timestep="11.00">
        <lanes>
            <lane id="gneE73_0" queueing_time="0.00" queueing_length="0.00" queueing_length_experimental="6.61"/>
        </lanes>
    </data>
    <data timestep="12.00">
        <lanes>
            <lane id="gneE73_0" queueing_time="0.00" queueing_length="0.00" queueing_length_experimental="6.00"/>
        </lanes>
    </data>
    <data timestep="13.00">
        <lanes>
            <lane id="gneE73_0" queueing_time="1.00" queueing_length="6.00" queueing_length_experimental="6.00"/>
        </lanes>
    </data>
    <data timestep="14.00">
        <lanes>
            <lane id="gneE73_0" queueing_time="2.00" queueing_length="6.00" queueing_length_experimental="6.00"/>
        </lanes>
    </data>
    <data timestep="15.00">
        <lanes>
            <lane id="gneE73_0" queueing_time="3.00" queueing_length="6.00" queueing_length_experimental="6.00"/>
        </lanes>
    </data>
    <data timestep="16.00">
        <lanes>
            <lane id="-61645695_0" queueing_time="0.00" queueing_length="0.00" queueing_length_experimental="6.04"/>
            <lane id="gneE73_0" queueing_time="4.00" queueing_length="6.00" queueing_length_experimental="6.00"/>
        </lanes>
    </data>
    <data timestep="17.00">
        <lanes>
            <lane id="-61645695_0" queueing_time="1.00" queueing_length="6.00" queueing_length_experimental="6.00"/>
            <lane id="gneE10.441_0" queueing_time="0.00" queueing_length="0.00" queueing_length_experimental="16.64"/>
            <lane id="gneE73_0" queueing_time="5.00" queueing_length="6.00" queueing_length_experimental="6.00"/>
        </lanes>
    </data>
    <data timestep="18.00">
        <lanes>
            <lane id="-61645695_0" queueing_time="2.00" queueing_length="6.00" queueing_length_experimental="6.00"/>
            <lane id="gneE73_0" queueing_time="6.00" queueing_length="6.00" queueing_length_experimental="6.00"/>
        </lanes>
    </data>
    <data timestep="19.00">
        <lanes>
            <lane id="-61645695_0" queueing_time="3.00" queueing_length="6.00" queueing_length_experimental="6.00"/>
            <lane id="gneE73_0" queueing_time="7.00" queueing_length="6.00" queueing_length_experimental="6.00"/>
        </lanes>
    </data>
    <data timestep="20.00">
        <lanes>
            <lane id="-61645695_0" queueing_time="4.00" queueing_length="6.00" queueing_length_experimental="6.00"/>
            <lane id="gneE73_0" queueing_time="8.00" queueing_length="6.00" queueing_length_experimental="6.00"/>
        </lanes>
    </data>
    <data timestep="21.00">
        <lanes>
            <lane id="-61645695_0" queueing_time="5.00" queueing_length="6.00" queueing_length_experimental="6.00"/>
            <lane id="gneE10.441_0" queueing_time="0.00" queueing_length="0.00" queueing_length_experimental="16.64"/>
            <lane id="gneE73_0" queueing_time="9.00" queueing_length="6.00" queueing_length_experimental="6.00"/>
        </lanes>
    </data>
    <data timestep="22.00">
        <lanes>
            <lane id="-61645695_0" queueing_time="6.00" queueing_length="6.00" queueing_length_experimental="6.00"/>
            <lane id="-628341438#0_0" queueing_time="1.00" queueing_length="10.55" queueing_length_experimental="10.55"/>
            <lane id="gneE73_0" queueing_time="10.00" queueing_length="6.00" queueing_length_experimental="6.00"/>
            <lane id="gneE73_1" queueing_time="0.00" queueing_length="0.00" queueing_length_experimental="6.02"/>
        </lanes>
    </data>
    <data timestep="23.00">
        <lanes>
            <lane id="-61645695_0" queueing_time="7.00" queueing_length="6.00" queueing_length_experimental="6.00"/>
            <lane id="-628341438#0_0" queueing_time="2.00" queueing_length="10.55" queueing_length_experimental="10.55"/>
            <lane id="gneE73_0" queueing_time="11.00" queueing_length="6.00" queueing_length_experimental="6.00"/>
            <lane id="gneE73_1" queueing_time="1.00" queueing_length="6.00" queueing_length_experimental="6.00"/>
        </lanes>
    </data>
    <data timestep="24.00">
        <lanes>
            <lane id="-61645695_0" queueing_time="8.00" queueing_length="6.00" queueing_length_experimental="6.00"/>
            <lane id="-628341438#0_0" queueing_time="3.00" queueing_length="10.54" queueing_length_experimental="10.54"/>
            <lane id="gneE73_0" queueing_time="12.00" queueing_length="6.00" queueing_length_experimental="6.00"/>
            <lane id="gneE73_1" queueing_time="2.00" queueing_length="6.00" queueing_length_experimental="6.00"/>
        </lanes>
    </data>
    <data timestep="25.00">
        <lanes>
            <lane id="-61645695_0" queueing_time="9.00" queueing_length="6.00" queueing_length_experimental="6.00"/>
            <lane id="-628341438#0_0" queueing_time="4.00" queueing_length="10.54" queueing_length_experimental="10.54"/>
            <lane id="gneE10.441_0" queueing_time="0.00" queueing_length="0.00" queueing_length_experimental="16.64"/>
            <lane id="gneE10.441_1" queueing_time="0.00" queueing_length="0.00" queueing_length_experimental="5.53"/>
            <lane id="gneE73_0" queueing_time="13.00" queueing_length="6.00" queueing_length_experimental="6.00"/>
            <lane id="gneE73_1" queueing_time="3.00" queueing_length="6.00" queueing_length_experimental="6.00"/>
        </lanes>
    </data>
    <data timestep="26.00">
        <lanes>
            <lane id="-61645695_0" queueing_time="10.00" queueing_length="6.00" queueing_length_experimental="6.00"/>
            <lane id="-628341438#0_0" queueing_time="5.00" queueing_length="10.54" queueing_length_experimental="10.54"/>
            <lane id="gneE10.441_1" queueing_time="1.00" queueing_length="5.51" queueing_length_experimental="5.51"/>
            <lane id="gneE73_0" queueing_time="14.00" queueing_length="6.00" queueing_length_experimental="6.00"/>
            <lane id="gneE73_1" queueing_time="4.00" queueing_length="6.00" queueing_length_experimental="6.00"/>
        </lanes>
    </data>
    <data timestep="27.00">
        <lanes>
            <lane id="-61645695_0" queueing_time="11.00" queueing_length="6.00" queueing_length_experimental="6.00"/>
            <lane id="-628341438#0_0" queueing_time="6.00" queueing_length="10.54" queueing_length_experimental="10.54"/>
            <lane id="gneE10.441_1" queueing_time="2.00" queueing_length="5.51" queueing_length_experimental="5.51"/>
            <lane id="gneE73_0" queueing_time="15.00" queueing_length="6.00" queueing_length_experimental="6.00"/>
            <lane id="gneE73_1" queueing_time="5.00" queueing_length="6.00" queueing_length_experimental="6.00"/>
        </lanes>
    </data>
    <data timestep="28.00">
        <lanes>
            <lane id="-61645695_0" queueing_time="12.00" queueing_length="6.00" queueing_length_experimental="6.00"/>
            <lane id="-628341438#0_0" queueing_time="7.00" queueing_length="10.54" queueing_length_experimental="10.54"/>
            <lane id="620377512_0" queueing_time="0.00" queueing_length="0.00" queueing_length_experimental="6.09"/>
            <lane id="gneE10.441_0" queueing_time="0.00" queueing_length="0.00" queueing_length_experimental="16.64"/>
            <lane id="gneE10.441_1" queueing_time="3.00" queueing_length="5.50" queueing_length_experimental="5.50"/>
            <lane id="gneE73_0" queueing_time="16.00" queueing_length="6.00" queueing_length_experimental="6.00"/>
            <lane id="gneE73_1" queueing_time="6.00" queueing_length="6.00" queueing_length_experimental="6.00"/>
        </lanes>
    </data>
    <data timestep="29.00">
        <lanes>
            <lane id="-61645695_0" queueing_time="13.00" queueing_length="6.00" queueing_length_experimental="6.00"/>
            <lane id="-628341438#0_0" queueing_time="8.00" queueing_length="18.09" queueing_length_experimental="18.09"/>
            <lane id="620377512_0" queueing_time="1.00" queueing_length="6.04" queueing_length_experimental="6.04"/>
            <lane id="gneE10.441_0" queueing_time="0.00" queueing_length="0.00" queueing_length_experimental="5.57"/>
            <lane id="gneE10.441_1" queueing_time="4.00" queueing_length="5.50" queueing_length_experimental="5.50"/>
            <lane id="gneE73_0" queueing_time="17.00" queueing_length="6.00" queueing_length_experimental="6.00"/>
            <lane id="gneE73_1" queueing_time="7.00" queueing_length="6.00" queueing_length_experimental="6.00"/>
        </lanes>
    </data>
    <data timestep="30.00">
        <lanes>
            <lane id="-61645695_0" queueing_time="14.00" queueing_length="6.00" queueing_length_experimental="6.00"/>
            <lane id="-628341438#0_0" queueing_time="9.00" queueing_length="18.06" queueing_length_experimental="18.06"/>
            <lane id="619523288_3" queueing_time="0.00" queueing_length="0.00" queueing_length_experimental="6.12"/>
            <lane id="620377512_0" queueing_time="2.00" queueing_length="6.02" queueing_length_experimental="6.02"/>
            <lane id="gneE10.441_0" queueing_time="1.00" queueing_length="5.51" queueing_length_experimental="16.64"/>
            <lane id="gneE10.441_1" queueing_time="5.00" queueing_length="5.50" queueing_length_experimental="13.60"/>
            <lane id="gneE73_0" queueing_time="18.00" queueing_length="6.00" queueing_length_experimental="6.00"/>
            <lane id="gneE73_1" queueing_time="8.00" queueing_length="6.00" queueing_length_experimental="6.00"/>
        </lanes>
    </data>
    <data timestep="31.00">
        <lanes>
            <lane id="-61645695_0" queueing_time="15.00" queueing_length="6.00" queueing_length_experimental="6.00"/>
            <lane id="-628341438#0_0" queueing_time="10.00" queueing_length="18.05" queueing_length_experimental="18.05"/>
            <lane id="619523288_3" queueing_time="1.00" queueing_length="6.04" queueing_length_experimental="6.04"/>
            <lane id="620377512_0" queueing_time="3.00" queueing_length="6.01" queueing_length_experimental="6.01"/>
            <lane id="gneE10.441_0" queueing_time="2.00" queueing_length="5.50" queueing_length_experimental="5.50"/>
            <lane id="gneE10.441_1" queueing_time="6.00" queueing_length="5.50" queueing_length_experimental="13.11"/>
            <lane id="gneE73_0" queueing_time="19.00" queueing_length="6.00" queueing_length_experimental="6.00"/>
            <lane id="gneE73_1" queueing_time="9.00" queueing_length="6.00" queueing_length_experimental="6.00"/>
        </lanes>
    </data>
    <data timestep="32.00">
        <lanes>
            <lane id="-61645695_0" queueing_time="16.00" queueing_length="6.00" queueing_length_experimental="6.00"/>
            <lane id="-628341438#0_0" queueing_time="11.00" queueing_length="25.58" queueing_length_experimental="18.04"/>
            <lane id="619523288_3" queueing_time="2.00" queueing_length="6.01" queueing_length_experimental="6.01"/>
            <lane id="620377512_0" queueing_time="4.00" queueing_length="6.00" queueing_length_experimental="6.00"/>
            <lane id="620377512_1" queueing_time="0.00" queueing_length="0.00" queueing_length_experimental="6.13"/>
            <lane id="gneE10.441_0" queueing_time="3.00" queueing_length="5.50" queueing_length_experimental="13.08"/>
            <lane id="gneE10.441_1" queueing_time="7.00" queueing_length="13.02" queueing_length_experimental="13.02"/>
            <lane id="gneE73_0" queueing_time="20.00" queueing_length="6.00" queueing_length_experimental="6.00"/>
            <lane id="gneE73_1" queueing_time="10.00" queueing_length="6.00" queueing_length_experimental="6.00"/>
        </lanes>
    </data>
    <data timestep="33.00">
        <lanes>
            <lane id="-61645695_0" queueing_time="17.00" queueing_length="6.00" queueing_length_experimental="6.00"/>
            <lane id="-628341438#0_0" queueing_time="12.00" queueing_length="25.56" queueing_length_experimental="18.04"/>
            <lane id="619523288_3" queueing_time="3.00" queueing_length="6.00" queueing_length_experimental="6.00"/>
            <lane id="620377512_0" queueing_time="5.00" queueing_length="6.00" queueing_length_experimental="6.00"/>
            <lane id="620377512_1" queueing_time="1.00" queueing_length="6.04" queueing_length_experimental="6.04"/>
            <lane id="gneE10.441_0" queueing_time="4.00" queueing_length="13.01" queueing_length_experimental="13.01"/>
            <lane id="gneE10.441_1" queueing_time="8.00" queueing_length="13.01" queueing_length_experimental="13.01"/>
            <lane id="gneE73_0" queueing_time="21.00" queueing_length="6.00" queueing_length_experimental="6.00"/>
            <lane id="gneE73_1" queueing_time="11.00" queueing_length="6.00" queueing_length_experimental="6.00"/>
        </lanes>
    </data>
    <data timestep="34.00">
        <lanes>
            <lane id="-61645695_0" queueing_time="18.00" queueing_length="6.00" queueing_length_experimental="6.00"/>
            <lane id="-628341438#0_0" queueing_time="13.00" queueing_length="25.54" queueing_length_experimental="18.04"/>
            <lane id="-628341438#1_0" queueing_time="0.00" queueing_length="0.00" queueing_length_experimental="12.17"/>
            <lane id="619523288_3" queueing_time="4.00" queueing_length="6.00" queueing_length_experimental="6.00"/>
            <lane id="620377512_0" queueing_time="6.00" queueing_length="6.00" queueing_length_experimental="6.00"/>
            <lane id="620377512_1" queueing_time="2.00" queueing_length="6.02" queueing_length_experimental="6.02"/>
            <lane id="gneE10.441_0" queueing_time="5.00" queueing_length="13.00" queueing_length_experimental="13.00"/>
            <lane id="gneE10.441_1" queueing_time="9.00" queueing_length="13.00" queueing_length_experimental="13.00"/>
            <lane id="gneE73_0" queueing_time="22.00" queueing_length="6.00" queueing_length_experimental="6.00"/>
            <lane id="gneE73_1" queueing_time="12.00" queueing_length="6.00" queueing_length_experimental="6.00"/>
        </lanes>
    </data>
    <data timestep="35.00">
        <lanes>
            <lane id="-61645695_0" queueing_time="19.00" queueing_length="6.00" queueing_length_experimental="6.00"/>
            <lane id="-628341438#0_0" queueing_time="14.00" queueing_length="25.54" queueing_length_experimental="18.04"/>
            <lane id="-628341438#1_0" queueing_time="0.00" queueing_length="0.00" queueing_length_experimental="12.07"/>
            <lane id="619523288_3" queueing_time="5.00" queueing_length="6.00" queueing_length_experimental="6.00"/>
            <lane id="620377512_0" queueing_time="7.00" queueing_length="6.00" queueing_length_experimental="6.00"/>
            <lane id="620377512_1" queueing_time="3.00" queueing_length="6.00" queueing_length_experimental="6.00"/>
            <lane id="gneE10.441_0" queueing_time="6.00" queueing_length="13.00" queueing_length_experimental="13.00"/>
            <lane id="gneE10.441_1" queueing_time="10.00" queueing_length="13.00" queueing_length_experimental="13.00"/>
            <lane id="gneE73_0" queueing_time="23.00" queueing_length="6.00" queueing_length_experimental="6.00"/>
            <lane id="gneE73_1" queueing_time="13.00" queueing_length="6.00" queueing_length_experimental="6.00"/>
        </lanes>
    </data>
    <data timestep="36.00">
        <lanes>
            <lane id="-61645695_0" queueing_time="20.00" queueing_length="6.00" queueing_length_experimental="6.00"/>
            <lane id="-628341438#0_0" queueing_time="15.00" queueing_length="25.54" queueing_length_experimental="18.04"/>
            <lane id="-628341438#1_0" queueing_time="1.00" queueing_length="12.03" queueing_length_experimental="12.03"/>
            <lane id="619523288_3" queueing_time="6.00" queueing_length="6.00" queueing_length_experimental="6.00"/>
            <lane id="620377512_0" queueing_time="8.00" queueing_length="6.00" queueing_length_experimental="6.00"/>
            <lane id="620377512_1" queueing_time="4.00" queueing_length="6.00" queueing_length_experimental="6.00"/>
            <lane id="gneE10.441_0" queueing_time="7.00" queueing_length="13.00" queueing_length_experimental="13.00"/>
            <lane id="gneE10.441_1" queueing_time="11.00" queueing_length="13.00" queueing_length_experimental="13.00"/>
            <lane id="gneE73_0" queueing_time="24.00" queueing_length="6.00" queueing_length_experimental="6.00"/>
            <lane id="gneE73_1" queueing_time="14.00" queueing_length="6.00" queueing_length_experimental="6.00"/>
        </lanes>
    </data>
    <data timestep="37.00">
        <lanes>
            <lane id="-61645695_0" queueing_time="21.00" queueing_length="6.00" queueing_length_experimental="6.00"/>
            <lane id="-628341438#0_0" queueing_time="16.00" queueing_length="25.54" queueing_length_experimental="18.04"/>
            <lane id="-628341438#1_0" queueing_time="2.00" queueing_length="12.02" queueing_length_experimental="12.02"/>
            <lane id="619523288_3" queueing_time="7.00" queueing_length="6.00" queueing_length_experimental="6.00"/>
            <lane id="620377512_0" queueing_time="9.00" queueing_length="6.00" queueing_length_experimental="6.00"/>
            <lane id="620377512_1" queueing_time="5.00" queueing_length="6.00" queueing_length_experimental="6.00"/>
            <lane id="gneE10.441_0" queueing_time="8.00" queueing_length="13.00" queueing_length_experimental="13.00"/>
            <lane id="gneE10.441_1" queueing_time="12.00" queueing_length="13.00" queueing_length_experimental="13.00"/>
            <lane id="gneE73_0" queueing_time="25.00" queueing_length="6.00" queueing_length_experimental="6.00"/>
            <lane id="gneE73_1" queueing_time="15.00" queueing_length="6.00" queueing_length_experimental="6.00"/>
        </lanes>
    </data>
    <data timestep="38.00">
        <lanes>
            <lane id="-61645695_0" queueing_time="22.00" queueing_length="6.00" queueing_length_experimental="6.00"/>
            <lane id="-628341438#0_0" queueing_time="17.00" queueing_length="25.54" queueing_length_experimental="18.04"/>
            <lane id="-628341438#1_0" queueing_time="3.00" queueing_length="12.02" queueing_length_experimental="12.02"/>
            <lane id="619523288_3" queueing_time="8.00" queueing_length="6.00" queueing_length_experimental="13.61"/>
            <lane id="620377512_0" queueing_time="10.00" queueing_length="6.00" queueing_length_experimental="6.00"/>
            <lane id="620377512_1" queueing_time="6.00" queueing_length="6.00" queueing_length_experimental="6.00"/>
            <lane id="gneE10.441_0" queueing_time="9.00" queueing_length="13.00" queueing_length_experimental="13.00"/>
            <lane id="gneE10.441_1" queueing_time="13.00" queueing_length="13.00" queueing_length_experimental="13.00"/>
        </lanes>
    </data>
    <data timestep="39.00">
        <lanes>
            <lane id="-61645695_0" queueing_time="23.00" queueing_length="6.00" queueing_length_experimental="6.00"/>
            <lane id="-628341438#0_0" queueing_time="18.00" queueing_length="25.54" queueing_length_experimental="18.04"/>
            <lane id="-628341438#1_0" queueing_time="4.00" queueing_length="12.02" queueing_length_experimental="12.02"/>
            <lane id="619523288_3" queueing_time="9.00" queueing_length="13.51" queueing_length_experimental="13.51"/>
            <lane id="620377512_0" queueing_time="11.00" queueing_length="6.00" queueing_length_experimental="13.64"/>
            <lane id="620377512_1" queueing_time="7.00" queueing_length="6.00" queueing_length_experimental="6.00"/>
            <lane id="gneE10.441_0" queueing_time="7.00" queueing_length="13.00" queueing_length_experimental="13.00"/>
            <lane id="gneE10.441_1" queueing_time="8.00" queueing_length="13.00" queueing_length_experimental="13.00"/>
        </lanes>
    </data>
    <data timestep="40.00">
        <lanes>
            <lane id="-61645695_0" queueing_time="24.00" queueing_length="6.00" queueing_length_experimental="6.00"/>
            <lane id="-628341438#0_0" queueing_time="19.00" queueing_length="25.54" queueing_length_experimental="18.04"/>
            <lane id="-628341438#1_0" queueing_time="5.00" queueing_length="12.02" queueing_length_experimental="12.02"/>
            <lane id="619523288_3" queueing_time="10.00" queueing_length="13.50" queueing_length_experimental="13.50"/>
            <lane id="620377512_0" queueing_time="12.00" queueing_length="13.55" queueing_length_experimental="13.55"/>
            <lane id="620377512_1" queueing_time="8.00" queueing_length="6.00" queueing_length_experimental="6.00"/>
            <lane id="gneE10.441_0" queueing_time="0.00" queueing_length="0.00" queueing_length_experimental="12.12"/>
            <lane id="gneE10.441_1" queueing_time="0.00" queueing_length="0.00" queueing_length_experimental="12.38"/>
        </lanes>
    </data>
    <data timestep="41.00">
        <lanes>
            <lane id="-61645695_0" queueing_time="25.00" queueing_length="6.00" queueing_length_experimental="6.00"/>
            <lane id="-628341438#0_0" queueing_time="20.00" queueing_length="25.54" queueing_length_experimental="18.04"/>
            <lane id="-628341438#1_0" queueing_time="6.00" queueing_length="12.02" queueing_length_experimental="12.02"/>
            <lane id="619523288_3" queueing_time="3.00" queueing_length="13.50" queueing_length_experimental="13.50"/>
            <lane id="620377512_0" queueing_time="13.00" queueing_length="13.52" queueing_length_experimental="13.52"/>
            <lane id="620377512_1" queueing_time="9.00" queueing_length="6.00" queueing_length_experimental="6.00"/>
        </lanes>
    </data>
    <data timestep="42.00">
        <lanes>
            <lane id="-61645695_0" queueing_time="26.00" queueing_length="6.00" queueing_length_experimental="6.00"/>
            <lane id="-628341438#0_0" queueing_time="21.00" queueing_length="25.54" queueing_length_experimental="18.04"/>
            <lane id="-628341438#1_0" queueing_time="7.00" queueing_length="12.02" queueing_length_experimental="12.02"/>
            <lane id="620377512_0" queueing_time="14.00" queueing_length="13.51" queueing_length_experimental="13.51"/>
            <lane id="620377512_1" queueing_time="10.00" queueing_length="6.00" queueing_length_experimental="6.00"/>
            <lane id="gneE10.441_0" queueing_time="0.00" queueing_length="0.00" queueing_length_experimental="16.64"/>
        </lanes>
    </data>
    <data timestep="43.00">
        <lanes>
            <lane id="-61645695_0" queueing_time="27.00" queueing_length="6.00" queueing_length_experimental="6.00"/>
            <lane id="-628341438#0_0" queueing_time="22.00" queueing_length="25.54" queueing_length_experimental="18.04"/>
            <lane id="-628341438#1_0" queueing_time="8.00" queueing_length="12.02" queueing_length_experimental="12.02"/>
            <lane id="620377512_0" queueing_time="15.00" queueing_length="13.50" queueing_length_experimental="13.50"/>
            <lane id="620377512_1" queueing_time="11.00" queueing_length="6.00" queueing_length_experimental="6.00"/>
            <lane id="gneE10.441_0" queueing_time="0.00" queueing_length="0.00" queueing_length_experimental="16.64"/>
            <lane id="gneE10.441_1" queueing_time="0.00" queueing_length="0.00" queueing_length_experimental="16.27"/>
        </lanes>
    </data>
    <data timestep="44.00">
        <lanes>
            <lane id="-61645695_0" queueing_time="28.00" queueing_length="6.00" queueing_length_experimental="6.00"/>
            <lane id="-628341438#0_0" queueing_time="23.00" queueing_length="25.54" queueing_length_experimental="18.04"/>
            <lane id="-628341438#1_0" queueing_time="9.00" queueing_length="12.02" queueing_length_experimental="12.02"/>
            <lane id="620377512_0" queueing_time="16.00" queueing_length="13.50" queueing_length_experimental="13.50"/>
            <lane id="620377512_1" queueing_time="12.00" queueing_length="6.00" queueing_length_experimental="6.00"/>
            <lane id="gneE10.441_0" queueing_time="0.00" queueing_length="0.00" queueing_length_experimental="15.32"/>
            <lane id="gneE10.441_1" queueing_time="0.00" queueing_length="0.00" queueing_length_experimental="14.99"/>
        </lanes>
    </data>
    <data timestep="45.00">
        <lanes>
            <lane id="-61645695_0" queueing_time="29.00" queueing_length="6.00" queueing_length_experimental="6.00"/>
            <lane id="-628341438#0_0" queueing_time="24.00" queueing_length="25.54" queueing_length_experimental="18.04"/>
            <lane id="-628341438#1_0" queueing_time="10.00" queueing_length="12.02" queueing_length_experimental="12.02"/>
            <lane id="620377512_0" queueing_time="17.00" queueing_length="13.50" queueing_length_experimental="13.50"/>
            <lane id="620377512_1" queueing_time="13.00" queueing_length="6.00" queueing_length_experimental="6.00"/>
        </lanes>
    </data>
    <data timestep="46.00">
        <lanes>
            <lane id="-61645695_0" queueing_time="30.00" queueing_length="6.00" queueing_length_experimental="6.00"/>
            <lane id="-628341438#0_0" queueing_time="25.00" queueing_length="25.54" queueing_length_experimental="18.04"/>
            <lane id="-628341438#1_0" queueing_time="11.00" queueing_length="12.02" queueing_length_experimental="19.88"/>
            <lane id="122089525.34_0" queueing_time="0.00" queueing_length="0.00" queueing_length_experimental="6.17"/>
            <lane id="620377512_0" queueing_time="18.00" queueing_length="13.50" queueing_length_experimental="13.50"/>
            <lane id="620377512_1" queueing_time="14.00" queueing_length="6.00" queueing_length_experimental="6.00"/>
            <lane id="gneE10.441_0" queueing_time="0.00" queueing_length="0.00" queueing_length_experimental="16.64"/>
            <lane id="gneE10.441_1" queueing_time="1.00" queueing_length="12.54" queueing_length_experimental="12.54"/>
        </lanes>
    </data>
    <data timestep="47.00">
        <lanes>
            <lane id="-61645695_0" queueing_time="31.00" queueing_length="6.00" queueing_length_experimental="6.00"/>
            <lane id="-628341438#0_0" queueing_time="26.00" queueing_length="25.54" queueing_length_experimental="18.04"/>
            <lane id="-628341438#1_0" queueing_time="12.00" queueing_length="12.02" queueing_length_experimental="19.60"/>
            <lane id="122089525.34_0" queueing_time="0.00" queueing_length="0.00" queueing_length_experimental="6.01"/>
            <lane id="619526566_2" queueing_time="0.00" queueing_length="0.00" queueing_length_experimental="6.09"/>
            <lane id="620377512_0" queueing_time="19.00" queueing_length="13.50" queueing_length_experimental="13.50"/>
            <lane id="620377512_1" queueing_time="15.00" queueing_length="6.00" queueing_length_experimental="6.00"/>
            <lane id="gneE10.441_1" queueing_time="2.00" queueing_length="12.54" queueing_length_experimental="12.54"/>
        </lanes>
    </data>
    <data timestep="48.00">
        <lanes>
            <lane id="-61645695_0" queueing_time="32.00" queueing_length="6.00" queueing_length_experimental="6.00"/>
            <lane id="-628341438#0_0" queueing_time="27.00" queueing_length="25.54" queueing_length_experimental="18.04"/>
            <lane id="-628341438#1_0" queueing_time="13.00" queueing_length="19.55" queueing_length_experimental="27.17"/>
            <lane id="122089525.34_0" queueing_time="1.00" queueing_length="6.00" queueing_length_experimental="6.00"/>
            <lane id="619526566_2" queueing_time="1.00" queueing_length="6.01" queueing_length_experimental="6.01"/>
            <lane id="620377512_0" queueing_time="20.00" queueing_length="13.50" queueing_length_experimental="13.50"/>
            <lane id="620377512_1" queueing_time="16.00" queueing_length="6.00" queueing_length_experimental="6.00"/>
        </lanes>
    </data>
    <data timestep="49.00">
        <lanes>
            <lane id="-61645695_0" queueing_time="33.00" queueing_length="6.00" queueing_length_experimental="6.00"/>